+ 0.1 0 2 tcp 40 ------- 0 0.0 2.1 0 0
- 0.1 0 2 tcp 40 ------- 0 0.0 2.1 0 0
+ 0.1 1 2 cbr 512 ------- 0 1.0 2.0 0 1
- 0.1 1 2 cbr 512 ------- 0 1.0 2.0 0 1
+ 0.2 1 2 cbr 512 ------- 0 1.0 2.0 1 2
- 0.2 1 2 cbr 512 ------- 0 1.0 2.0 1 2
r 0.20032 0 2 tcp 40 ------- 0 0.0 2.1 0 0
+ 0.20032 2 0 ack 40 ------- 0 2.1 0.0 0 3
- 0.20032 2 0 ack 40 ------- 0 2.1 0.0 0 3
r 0.204096 1 2 cbr 512 ------- 0 1.0 2.0 0 1
+ 0.3 1 2 cbr 512 ------- 0 1.0 2.0 2 4
- 0.3 1 2 cbr 512 ------- 0 1.0 2.0 2 4
r 0.30064 2 0 ack 40 ------- 0 2.1 0.0 0 3
+ 0.30064 0 2 tcp 1064 ------- 0 0.0 2.1 1 5
- 0.30064 0 2 tcp 1064 ------- 0 0.0 2.1 1 5
+ 0.30064 0 2 tcp 1064 ------- 0 0.0 2.1 2 6
r 0.304096 1 2 cbr 512 ------- 0 1.0 2.0 1 2
- 0.309152 0 2 tcp 1064 ------- 0 0.0 2.1 2 6
+ 0.4 1 2 cbr 512 ------- 0 1.0 2.0 3 7
- 0.4 1 2 cbr 512 ------- 0 1.0 2.0 3 7
r 0.404096 1 2 cbr 512 ------- 0 1.0 2.0 2 4
r 0.409152 0 2 tcp 1064 ------- 0 0.0 2.1 1 5
+ 0.409152 2 0 ack 40 ------- 0 2.1 0.0 1 8
- 0.409152 2 0 ack 40 ------- 0 2.1 0.0 1 8
r 0.417664 0 2 tcp 1064 ------- 0 0.0 2.1 2 6
+ 0.417664 2 0 ack 40 ------- 0 2.1 0.0 2 9
- 0.417664 2 0 ack 40 ------- 0 2.1 0.0 2 9
+ 0.5 1 2 cbr 512 ------- 0 1.0 2.0 4 10
- 0.5 1 2 cbr 512 ------- 0 1.0 2.0 4 10
r 0.504096 1 2 cbr 512 ------- 0 1.0 2.0 3 7
r 0.509472 2 0 ack 40 ------- 0 2.1 0.0 1 8
+ 0.509472 0 2 tcp 1064 ------- 0 0.0 2.1 3 11
- 0.509472 0 2 tcp 1064 ------- 0 0.0 2.1 3 11
+ 0.509472 0 2 tcp 1064 ------- 0 0.0 2.1 4 12
r 0.517984 2 0 ack 40 ------- 0 2.1 0.0 2 9
+ 0.517984 0 2 tcp 1064 ------- 0 0.0 2.1 5 13
+ 0.517984 0 2 tcp 1064 ------- 0 0.0 2.1 6 14
- 0.517984 0 2 tcp 1064 ------- 0 0.0 2.1 4 12
- 0.526496 0 2 tcp 1064 ------- 0 0.0 2.1 5 13
- 0.535008 0 2 tcp 1064 ------- 0 0.0 2.1 6 14
+ 0.6 1 2 cbr 512 ------- 0 1.0 2.0 5 15
- 0.6 1 2 cbr 512 ------- 0 1.0 2.0 5 15
r 0.604096 1 2 cbr 512 ------- 0 1.0 2.0 4 10
r 0.617984 0 2 tcp 1064 ------- 0 0.0 2.1 3 11
+ 0.617984 2 0 ack 40 ------- 0 2.1 0.0 3 16
- 0.617984 2 0 ack 40 ------- 0 2.1 0.0 3 16
r 0.626496 0 2 tcp 1064 ------- 0 0.0 2.1 4 12
+ 0.626496 2 0 ack 40 ------- 0 2.1 0.0 4 17
- 0.626496 2 0 ack 40 ------- 0 2.1 0.0 4 17
r 0.635008 0 2 tcp 1064 ------- 0 0.0 2.1 5 13
+ 0.635008 2 0 ack 40 ------- 0 2.1 0.0 5 18
- 0.635008 2 0 ack 40 ------- 0 2.1 0.0 5 18
r 0.64352 0 2 tcp 1064 ------- 0 0.0 2.1 6 14
+ 0.64352 2 0 ack 40 ------- 0 2.1 0.0 6 19
- 0.64352 2 0 ack 40 ------- 0 2.1 0.0 6 19
+ 0.7 1 2 cbr 512 ------- 0 1.0 2.0 6 20
- 0.7 1 2 cbr 512 ------- 0 1.0 2.0 6 20
r 0.704096 1 2 cbr 512 ------- 0 1.0 2.0 5 15
r 0.718304 2 0 ack 40 ------- 0 2.1 0.0 3 16
+ 0.718304 0 2 tcp 1064 ------- 0 0.0 2.1 7 21
- 0.718304 0 2 tcp 1064 ------- 0 0.0 2.1 7 21
+ 0.718304 0 2 tcp 1064 ------- 0 0.0 2.1 8 22
r 0.726816 2 0 ack 40 ------- 0 2.1 0.0 4 17
+ 0.726816 0 2 tcp 1064 ------- 0 0.0 2.1 9 23
+ 0.726816 0 2 tcp 1064 ------- 0 0.0 2.1 10 24
- 0.726816 0 2 tcp 1064 ------- 0 0.0 2.1 8 22
r 0.735328 2 0 ack 40 ------- 0 2.1 0.0 5 18
+ 0.735328 0 2 tcp 1064 ------- 0 0.0 2.1 11 25
+ 0.735328 0 2 tcp 1064 ------- 0 0.0 2.1 12 26
- 0.735328 0 2 tcp 1064 ------- 0 0.0 2.1 9 23
r 0.74384 2 0 ack 40 ------- 0 2.1 0.0 6 19
+ 0.74384 0 2 tcp 1064 ------- 0 0.0 2.1 13 27
+ 0.74384 0 2 tcp 1064 ------- 0 0.0 2.1 14 28
- 0.74384 0 2 tcp 1064 ------- 0 0.0 2.1 10 24
- 0.752352 0 2 tcp 1064 ------- 0 0.0 2.1 11 25
- 0.760864 0 2 tcp 1064 ------- 0 0.0 2.1 12 26
- 0.769376 0 2 tcp 1064 ------- 0 0.0 2.1 13 27
- 0.777888 0 2 tcp 1064 ------- 0 0.0 2.1 14 28
+ 0.8 1 2 cbr 512 ------- 0 1.0 2.0 7 29
- 0.8 1 2 cbr 512 ------- 0 1.0 2.0 7 29
r 0.804096 1 2 cbr 512 ------- 0 1.0 2.0 6 20
r 0.826816 0 2 tcp 1064 ------- 0 0.0 2.1 7 21
+ 0.826816 2 0 ack 40 ------- 0 2.1 0.0 7 30
- 0.826816 2 0 ack 40 ------- 0 2.1 0.0 7 30
r 0.835328 0 2 tcp 1064 ------- 0 0.0 2.1 8 22
+ 0.835328 2 0 ack 40 ------- 0 2.1 0.0 8 31
- 0.835328 2 0 ack 40 ------- 0 2.1 0.0 8 31
r 0.84384 0 2 tcp 1064 ------- 0 0.0 2.1 9 23
+ 0.84384 2 0 ack 40 ------- 0 2.1 0.0 9 32
- 0.84384 2 0 ack 40 ------- 0 2.1 0.0 9 32
r 0.852352 0 2 tcp 1064 ------- 0 0.0 2.1 10 24
+ 0.852352 2 0 ack 40 ------- 0 2.1 0.0 10 33
- 0.852352 2 0 ack 40 ------- 0 2.1 0.0 10 33
r 0.860864 0 2 tcp 1064 ------- 0 0.0 2.1 11 25
+ 0.860864 2 0 ack 40 ------- 0 2.1 0.0 11 34
- 0.860864 2 0 ack 40 ------- 0 2.1 0.0 11 34
r 0.869376 0 2 tcp 1064 ------- 0 0.0 2.1 12 26
+ 0.869376 2 0 ack 40 ------- 0 2.1 0.0 12 35
- 0.869376 2 0 ack 40 ------- 0 2.1 0.0 12 35
r 0.877888 0 2 tcp 1064 ------- 0 0.0 2.1 13 27
+ 0.877888 2 0 ack 40 ------- 0 2.1 0.0 13 36
- 0.877888 2 0 ack 40 ------- 0 2.1 0.0 13 36
r 0.8864 0 2 tcp 1064 ------- 0 0.0 2.1 14 28
+ 0.8864 2 0 ack 40 ------- 0 2.1 0.0 14 37
- 0.8864 2 0 ack 40 ------- 0 2.1 0.0 14 37
+ 0.9 1 2 cbr 512 ------- 0 1.0 2.0 8 38
- 0.9 1 2 cbr 512 ------- 0 1.0 2.0 8 38
r 0.904096 1 2 cbr 512 ------- 0 1.0 2.0 7 29
r 0.927136 2 0 ack 40 ------- 0 2.1 0.0 7 30
+ 0.927136 0 2 tcp 1064 ------- 0 0.0 2.1 15 39
- 0.927136 0 2 tcp 1064 ------- 0 0.0 2.1 15 39
+ 0.927136 0 2 tcp 1064 ------- 0 0.0 2.1 16 40
r 0.935648 2 0 ack 40 ------- 0 2.1 0.0 8 31
+ 0.935648 0 2 tcp 1064 ------- 0 0.0 2.1 17 41
+ 0.935648 0 2 tcp 1064 ------- 0 0.0 2.1 18 42
- 0.935648 0 2 tcp 1064 ------- 0 0.0 2.1 16 40
r 0.94416 2 0 ack 40 ------- 0 2.1 0.0 9 32
+ 0.94416 0 2 tcp 1064 ------- 0 0.0 2.1 19 43
+ 0.94416 0 2 tcp 1064 ------- 0 0.0 2.1 20 44
- 0.94416 0 2 tcp 1064 ------- 0 0.0 2.1 17 41
r 0.952672 2 0 ack 40 ------- 0 2.1 0.0 10 33
+ 0.952672 0 2 tcp 1064 ------- 0 0.0 2.1 21 45
+ 0.952672 0 2 tcp 1064 ------- 0 0.0 2.1 22 46
- 0.952672 0 2 tcp 1064 ------- 0 0.0 2.1 18 42
r 0.961184 2 0 ack 40 ------- 0 2.1 0.0 11 34
+ 0.961184 0 2 tcp 1064 ------- 0 0.0 2.1 23 47
+ 0.961184 0 2 tcp 1064 ------- 0 0.0 2.1 24 48
- 0.961184 0 2 tcp 1064 ------- 0 0.0 2.1 19 43
r 0.969696 2 0 ack 40 ------- 0 2.1 0.0 12 35
+ 0.969696 0 2 tcp 1064 ------- 0 0.0 2.1 25 49
+ 0.969696 0 2 tcp 1064 ------- 0 0.0 2.1 26 50
- 0.969696 0 2 tcp 1064 ------- 0 0.0 2.1 20 44
r 0.978208 2 0 ack 40 ------- 0 2.1 0.0 13 36
+ 0.978208 0 2 tcp 1064 ------- 0 0.0 2.1 27 51
+ 0.978208 0 2 tcp 1064 ------- 0 0.0 2.1 28 52
- 0.978208 0 2 tcp 1064 ------- 0 0.0 2.1 21 45
r 0.98672 2 0 ack 40 ------- 0 2.1 0.0 14 37
+ 0.98672 0 2 tcp 1064 ------- 0 0.0 2.1 29 53
+ 0.98672 0 2 tcp 1064 ------- 0 0.0 2.1 30 54
- 0.98672 0 2 tcp 1064 ------- 0 0.0 2.1 22 46
- 0.995232 0 2 tcp 1064 ------- 0 0.0 2.1 23 47
+ 1 1 2 cbr 512 ------- 0 1.0 2.0 9 55
- 1 1 2 cbr 512 ------- 0 1.0 2.0 9 55
- 1.003744 0 2 tcp 1064 ------- 0 0.0 2.1 24 48
r 1.004096 1 2 cbr 512 ------- 0 1.0 2.0 8 38
- 1.012256 0 2 tcp 1064 ------- 0 0.0 2.1 25 49
- 1.020768 0 2 tcp 1064 ------- 0 0.0 2.1 26 50
- 1.02928 0 2 tcp 1064 ------- 0 0.0 2.1 27 51
r 1.035648 0 2 tcp 1064 ------- 0 0.0 2.1 15 39
+ 1.035648 2 0 ack 40 ------- 0 2.1 0.0 15 56
- 1.035648 2 0 ack 40 ------- 0 2.1 0.0 15 56
- 1.037792 0 2 tcp 1064 ------- 0 0.0 2.1 28 52
r 1.04416 0 2 tcp 1064 ------- 0 0.0 2.1 16 40
+ 1.04416 2 0 ack 40 ------- 0 2.1 0.0 16 57
- 1.04416 2 0 ack 40 ------- 0 2.1 0.0 16 57
- 1.046304 0 2 tcp 1064 ------- 0 0.0 2.1 29 53
r 1.052672 0 2 tcp 1064 ------- 0 0.0 2.1 17 41
+ 1.052672 2 0 ack 40 ------- 0 2.1 0.0 17 58
- 1.052672 2 0 ack 40 ------- 0 2.1 0.0 17 58
- 1.054816 0 2 tcp 1064 ------- 0 0.0 2.1 30 54
r 1.061184 0 2 tcp 1064 ------- 0 0.0 2.1 18 42
+ 1.061184 2 0 ack 40 ------- 0 2.1 0.0 18 59
- 1.061184 2 0 ack 40 ------- 0 2.1 0.0 18 59
r 1.069696 0 2 tcp 1064 ------- 0 0.0 2.1 19 43
+ 1.069696 2 0 ack 40 ------- 0 2.1 0.0 19 60
- 1.069696 2 0 ack 40 ------- 0 2.1 0.0 19 60
r 1.078208 0 2 tcp 1064 ------- 0 0.0 2.1 20 44
+ 1.078208 2 0 ack 40 ------- 0 2.1 0.0 20 61
- 1.078208 2 0 ack 40 ------- 0 2.1 0.0 20 61
r 1.08672 0 2 tcp 1064 ------- 0 0.0 2.1 21 45
+ 1.08672 2 0 ack 40 ------- 0 2.1 0.0 21 62
- 1.08672 2 0 ack 40 ------- 0 2.1 0.0 21 62
r 1.095232 0 2 tcp 1064 ------- 0 0.0 2.1 22 46
+ 1.095232 2 0 ack 40 ------- 0 2.1 0.0 22 63
- 1.095232 2 0 ack 40 ------- 0 2.1 0.0 22 63
+ 1.1 1 2 cbr 512 ------- 0 1.0 2.0 10 64
- 1.1 1 2 cbr 512 ------- 0 1.0 2.0 10 64
r 1.103744 0 2 tcp 1064 ------- 0 0.0 2.1 23 47
+ 1.103744 2 0 ack 40 ------- 0 2.1 0.0 23 65
- 1.103744 2 0 ack 40 ------- 0 2.1 0.0 23 65
r 1.104096 1 2 cbr 512 ------- 0 1.0 2.0 9 55
r 1.112256 0 2 tcp 1064 ------- 0 0.0 2.1 24 48
+ 1.112256 2 0 ack 40 ------- 0 2.1 0.0 24 66
- 1.112256 2 0 ack 40 ------- 0 2.1 0.0 24 66
r 1.120768 0 2 tcp 1064 ------- 0 0.0 2.1 25 49
+ 1.120768 2 0 ack 40 ------- 0 2.1 0.0 25 67
- 1.120768 2 0 ack 40 ------- 0 2.1 0.0 25 67
r 1.12928 0 2 tcp 1064 ------- 0 0.0 2.1 26 50
+ 1.12928 2 0 ack 40 ------- 0 2.1 0.0 26 68
- 1.12928 2 0 ack 40 ------- 0 2.1 0.0 26 68
r 1.135968 2 0 ack 40 ------- 0 2.1 0.0 15 56
+ 1.135968 0 2 tcp 1064 ------- 0 0.0 2.1 31 69
- 1.135968 0 2 tcp 1064 ------- 0 0.0 2.1 31 69
+ 1.135968 0 2 tcp 1064 ------- 0 0.0 2.1 32 70
r 1.137792 0 2 tcp 1064 ------- 0 0.0 2.1 27 51
+ 1.137792 2 0 ack 40 ------- 0 2.1 0.0 27 71
- 1.137792 2 0 ack 40 ------- 0 2.1 0.0 27 71
r 1.14448 2 0 ack 40 ------- 0 2.1 0.0 16 57
+ 1.14448 0 2 tcp 1064 ------- 0 0.0 2.1 33 72
+ 1.14448 0 2 tcp 1064 ------- 0 0.0 2.1 34 73
- 1.14448 0 2 tcp 1064 ------- 0 0.0 2.1 32 70
r 1.146304 0 2 tcp 1064 ------- 0 0.0 2.1 28 52
+ 1.146304 2 0 ack 40 ------- 0 2.1 0.0 28 74
- 1.146304 2 0 ack 40 ------- 0 2.1 0.0 28 74
r 1.152992 2 0 ack 40 ------- 0 2.1 0.0 17 58
+ 1.152992 0 2 tcp 1064 ------- 0 0.0 2.1 35 75
+ 1.152992 0 2 tcp 1064 ------- 0 0.0 2.1 36 76
- 1.152992 0 2 tcp 1064 ------- 0 0.0 2.1 33 72
r 1.154816 0 2 tcp 1064 ------- 0 0.0 2.1 29 53
+ 1.154816 2 0 ack 40 ------- 0 2.1 0.0 29 77
- 1.154816 2 0 ack 40 ------- 0 2.1 0.0 29 77
r 1.161504 2 0 ack 40 ------- 0 2.1 0.0 18 59
+ 1.161504 0 2 tcp 1064 ------- 0 0.0 2.1 37 78
+ 1.161504 0 2 tcp 1064 ------- 0 0.0 2.1 38 79
- 1.161504 0 2 tcp 1064 ------- 0 0.0 2.1 34 73
r 1.163328 0 2 tcp 1064 ------- 0 0.0 2.1 30 54
+ 1.163328 2 0 ack 40 ------- 0 2.1 0.0 30 80
- 1.163328 2 0 ack 40 ------- 0 2.1 0.0 30 80
r 1.170016 2 0 ack 40 ------- 0 2.1 0.0 19 60
+ 1.170016 0 2 tcp 1064 ------- 0 0.0 2.1 39 81
+ 1.170016 0 2 tcp 1064 ------- 0 0.0 2.1 40 82
- 1.170016 0 2 tcp 1064 ------- 0 0.0 2.1 35 75
r 1.178528 2 0 ack 40 ------- 0 2.1 0.0 20 61
+ 1.178528 0 2 tcp 1064 ------- 0 0.0 2.1 41 83
+ 1.178528 0 2 tcp 1064 ------- 0 0.0 2.1 42 84
- 1.178528 0 2 tcp 1064 ------- 0 0.0 2.1 36 76
r 1.18704 2 0 ack 40 ------- 0 2.1 0.0 21 62
+ 1.18704 0 2 tcp 1064 ------- 0 0.0 2.1 43 85
+ 1.18704 0 2 tcp 1064 ------- 0 0.0 2.1 44 86
- 1.18704 0 2 tcp 1064 ------- 0 0.0 2.1 37 78
r 1.195552 2 0 ack 40 ------- 0 2.1 0.0 22 63
+ 1.195552 0 2 tcp 1064 ------- 0 0.0 2.1 45 87
+ 1.195552 0 2 tcp 1064 ------- 0 0.0 2.1 46 88
- 1.195552 0 2 tcp 1064 ------- 0 0.0 2.1 38 79
+ 1.2 1 2 cbr 512 ------- 0 1.0 2.0 11 89
- 1.2 1 2 cbr 512 ------- 0 1.0 2.0 11 89
r 1.204064 2 0 ack 40 ------- 0 2.1 0.0 23 65
+ 1.204064 0 2 tcp 1064 ------- 0 0.0 2.1 47 90
+ 1.204064 0 2 tcp 1064 ------- 0 0.0 2.1 48 91
d 1.204064 0 2 tcp 1064 ------- 0 0.0 2.1 48 91
- 1.204064 0 2 tcp 1064 ------- 0 0.0 2.1 39 81
r 1.204096 1 2 cbr 512 ------- 0 1.0 2.0 10 64
r 1.212576 2 0 ack 40 ------- 0 2.1 0.0 24 66
+ 1.212576 0 2 tcp 1064 ------- 0 0.0 2.1 49 92
+ 1.212576 0 2 tcp 1064 ------- 0 0.0 2.1 50 93
d 1.212576 0 2 tcp 1064 ------- 0 0.0 2.1 50 93
- 1.212576 0 2 tcp 1064 ------- 0 0.0 2.1 40 82
r 1.221088 2 0 ack 40 ------- 0 2.1 0.0 25 67
+ 1.221088 0 2 tcp 1064 ------- 0 0.0 2.1 51 94
+ 1.221088 0 2 tcp 1064 ------- 0 0.0 2.1 52 95
d 1.221088 0 2 tcp 1064 ------- 0 0.0 2.1 52 95
- 1.221088 0 2 tcp 1064 ------- 0 0.0 2.1 41 83
r 1.2296 2 0 ack 40 ------- 0 2.1 0.0 26 68
+ 1.2296 0 2 tcp 1064 ------- 0 0.0 2.1 53 96
+ 1.2296 0 2 tcp 1064 ------- 0 0.0 2.1 54 97
d 1.2296 0 2 tcp 1064 ------- 0 0.0 2.1 54 97
- 1.2296 0 2 tcp 1064 ------- 0 0.0 2.1 42 84
r 1.238112 2 0 ack 40 ------- 0 2.1 0.0 27 71
+ 1.238112 0 2 tcp 1064 ------- 0 0.0 2.1 55 98
+ 1.238112 0 2 tcp 1064 ------- 0 0.0 2.1 56 99
d 1.238112 0 2 tcp 1064 ------- 0 0.0 2.1 56 99
- 1.238112 0 2 tcp 1064 ------- 0 0.0 2.1 43 85
r 1.24448 0 2 tcp 1064 ------- 0 0.0 2.1 31 69
+ 1.24448 2 0 ack 40 ------- 0 2.1 0.0 31 100
- 1.24448 2 0 ack 40 ------- 0 2.1 0.0 31 100
r 1.246624 2 0 ack 40 ------- 0 2.1 0.0 28 74
+ 1.246624 0 2 tcp 1064 ------- 0 0.0 2.1 57 101
+ 1.246624 0 2 tcp 1064 ------- 0 0.0 2.1 58 102
d 1.246624 0 2 tcp 1064 ------- 0 0.0 2.1 58 102
- 1.246624 0 2 tcp 1064 ------- 0 0.0 2.1 44 86
r 1.252992 0 2 tcp 1064 ------- 0 0.0 2.1 32 70
+ 1.252992 2 0 ack 40 ------- 0 2.1 0.0 32 103
- 1.252992 2 0 ack 40 ------- 0 2.1 0.0 32 103
r 1.255136 2 0 ack 40 ------- 0 2.1 0.0 29 77
+ 1.255136 0 2 tcp 1064 ------- 0 0.0 2.1 59 104
+ 1.255136 0 2 tcp 1064 ------- 0 0.0 2.1 60 105
d 1.255136 0 2 tcp 1064 ------- 0 0.0 2.1 60 105
- 1.255136 0 2 tcp 1064 ------- 0 0.0 2.1 45 87
r 1.261504 0 2 tcp 1064 ------- 0 0.0 2.1 33 72
+ 1.261504 2 0 ack 40 ------- 0 2.1 0.0 33 106
- 1.261504 2 0 ack 40 ------- 0 2.1 0.0 33 106
r 1.263648 2 0 ack 40 ------- 0 2.1 0.0 30 80
+ 1.263648 0 2 tcp 1064 ------- 0 0.0 2.1 61 107
+ 1.263648 0 2 tcp 1064 ------- 0 0.0 2.1 62 108
d 1.263648 0 2 tcp 1064 ------- 0 0.0 2.1 62 108
- 1.263648 0 2 tcp 1064 ------- 0 0.0 2.1 46 88
r 1.270016 0 2 tcp 1064 ------- 0 0.0 2.1 34 73
+ 1.270016 2 0 ack 40 ------- 0 2.1 0.0 34 109
- 1.270016 2 0 ack 40 ------- 0 2.1 0.0 34 109
- 1.27216 0 2 tcp 1064 ------- 0 0.0 2.1 47 90
r 1.278528 0 2 tcp 1064 ------- 0 0.0 2.1 35 75
+ 1.278528 2 0 ack 40 ------- 0 2.1 0.0 35 110
- 1.278528 2 0 ack 40 ------- 0 2.1 0.0 35 110
- 1.280672 0 2 tcp 1064 ------- 0 0.0 2.1 49 92
r 1.28704 0 2 tcp 1064 ------- 0 0.0 2.1 36 76
+ 1.28704 2 0 ack 40 ------- 0 2.1 0.0 36 111
- 1.28704 2 0 ack 40 ------- 0 2.1 0.0 36 111
- 1.289184 0 2 tcp 1064 ------- 0 0.0 2.1 51 94
r 1.295552 0 2 tcp 1064 ------- 0 0.0 2.1 37 78
+ 1.295552 2 0 ack 40 ------- 0 2.1 0.0 37 112
- 1.295552 2 0 ack 40 ------- 0 2.1 0.0 37 112
- 1.297696 0 2 tcp 1064 ------- 0 0.0 2.1 53 96
+ 1.3 1 2 cbr 512 ------- 0 1.0 2.0 12 113
- 1.3 1 2 cbr 512 ------- 0 1.0 2.0 12 113
r 1.304064 0 2 tcp 1064 ------- 0 0.0 2.1 38 79
+ 1.304064 2 0 ack 40 ------- 0 2.1 0.0 38 114
- 1.304064 2 0 ack 40 ------- 0 2.1 0.0 38 114
r 1.304096 1 2 cbr 512 ------- 0 1.0 2.0 11 89
- 1.306208 0 2 tcp 1064 ------- 0 0.0 2.1 55 98
r 1.312576 0 2 tcp 1064 ------- 0 0.0 2.1 39 81
+ 1.312576 2 0 ack 40 ------- 0 2.1 0.0 39 115
- 1.312576 2 0 ack 40 ------- 0 2.1 0.0 39 115
- 1.31472 0 2 tcp 1064 ------- 0 0.0 2.1 57 101
r 1.321088 0 2 tcp 1064 ------- 0 0.0 2.1 40 82
+ 1.321088 2 0 ack 40 ------- 0 2.1 0.0 40 116
- 1.321088 2 0 ack 40 ------- 0 2.1 0.0 40 116
- 1.323232 0 2 tcp 1064 ------- 0 0.0 2.1 59 104
r 1.3296 0 2 tcp 1064 ------- 0 0.0 2.1 41 83
+ 1.3296 2 0 ack 40 ------- 0 2.1 0.0 41 117
- 1.3296 2 0 ack 40 ------- 0 2.1 0.0 41 117
- 1.331744 0 2 tcp 1064 ------- 0 0.0 2.1 61 107
r 1.338112 0 2 tcp 1064 ------- 0 0.0 2.1 42 84
+ 1.338112 2 0 ack 40 ------- 0 2.1 0.0 42 118
- 1.338112 2 0 ack 40 ------- 0 2.1 0.0 42 118
r 1.3448 2 0 ack 40 ------- 0 2.1 0.0 31 100
+ 1.3448 0 2 tcp 1064 ------- 0 0.0 2.1 63 119
- 1.3448 0 2 tcp 1064 ------- 0 0.0 2.1 63 119
+ 1.3448 0 2 tcp 1064 ------- 0 0.0 2.1 64 120
r 1.346624 0 2 tcp 1064 ------- 0 0.0 2.1 43 85
+ 1.346624 2 0 ack 40 ------- 0 2.1 0.0 43 121
- 1.346624 2 0 ack 40 ------- 0 2.1 0.0 43 121
r 1.353312 2 0 ack 40 ------- 0 2.1 0.0 32 103
+ 1.353312 0 2 tcp 1064 ------- 0 0.0 2.1 65 122
+ 1.353312 0 2 tcp 1064 ------- 0 0.0 2.1 66 123
- 1.353312 0 2 tcp 1064 ------- 0 0.0 2.1 64 120
r 1.355136 0 2 tcp 1064 ------- 0 0.0 2.1 44 86
+ 1.355136 2 0 ack 40 ------- 0 2.1 0.0 44 124
- 1.355136 2 0 ack 40 ------- 0 2.1 0.0 44 124
r 1.361824 2 0 ack 40 ------- 0 2.1 0.0 33 106
+ 1.361824 0 2 tcp 1064 ------- 0 0.0 2.1 67 125
+ 1.361824 0 2 tcp 1064 ------- 0 0.0 2.1 68 126
- 1.361824 0 2 tcp 1064 ------- 0 0.0 2.1 65 122
r 1.363648 0 2 tcp 1064 ------- 0 0.0 2.1 45 87
+ 1.363648 2 0 ack 40 ------- 0 2.1 0.0 45 127
- 1.363648 2 0 ack 40 ------- 0 2.1 0.0 45 127
r 1.370336 2 0 ack 40 ------- 0 2.1 0.0 34 109
+ 1.370336 0 2 tcp 1064 ------- 0 0.0 2.1 69 128
+ 1.370336 0 2 tcp 1064 ------- 0 0.0 2.1 70 129
- 1.370336 0 2 tcp 1064 ------- 0 0.0 2.1 66 123
r 1.37216 0 2 tcp 1064 ------- 0 0.0 2.1 46 88
+ 1.37216 2 0 ack 40 ------- 0 2.1 0.0 46 130
- 1.37216 2 0 ack 40 ------- 0 2.1 0.0 46 130
r 1.378848 2 0 ack 40 ------- 0 2.1 0.0 35 110
+ 1.378848 0 2 tcp 1064 ------- 0 0.0 2.1 71 131
+ 1.378848 0 2 tcp 1064 ------- 0 0.0 2.1 72 132
- 1.378848 0 2 tcp 1064 ------- 0 0.0 2.1 67 125
r 1.380672 0 2 tcp 1064 ------- 0 0.0 2.1 47 90
+ 1.380672 2 0 ack 40 ------- 0 2.1 0.0 47 133
- 1.380672 2 0 ack 40 ------- 0 2.1 0.0 47 133
r 1.38736 2 0 ack 40 ------- 0 2.1 0.0 36 111
+ 1.38736 0 2 tcp 1064 ------- 0 0.0 2.1 73 134
+ 1.38736 0 2 tcp 1064 ------- 0 0.0 2.1 74 135
- 1.38736 0 2 tcp 1064 ------- 0 0.0 2.1 68 126
r 1.389184 0 2 tcp 1064 ------- 0 0.0 2.1 49 92
+ 1.389184 2 0 ack 40 ------- 0 2.1 0.0 47 136
- 1.389184 2 0 ack 40 ------- 0 2.1 0.0 47 136
r 1.395872 2 0 ack 40 ------- 0 2.1 0.0 37 112
+ 1.395872 0 2 tcp 1064 ------- 0 0.0 2.1 75 137
+ 1.395872 0 2 tcp 1064 ------- 0 0.0 2.1 76 138
- 1.395872 0 2 tcp 1064 ------- 0 0.0 2.1 69 128
r 1.397696 0 2 tcp 1064 ------- 0 0.0 2.1 51 94
+ 1.397696 2 0 ack 40 ------- 0 2.1 0.0 47 139
- 1.397696 2 0 ack 40 ------- 0 2.1 0.0 47 139
+ 1.4 1 2 cbr 512 ------- 0 1.0 2.0 13 140
- 1.4 1 2 cbr 512 ------- 0 1.0 2.0 13 140
r 1.404096 1 2 cbr 512 ------- 0 1.0 2.0 12 113
r 1.404384 2 0 ack 40 ------- 0 2.1 0.0 38 114
+ 1.404384 0 2 tcp 1064 ------- 0 0.0 2.1 77 141
+ 1.404384 0 2 tcp 1064 ------- 0 0.0 2.1 78 142
- 1.404384 0 2 tcp 1064 ------- 0 0.0 2.1 70 129
r 1.406208 0 2 tcp 1064 ------- 0 0.0 2.1 53 96
+ 1.406208 2 0 ack 40 ------- 0 2.1 0.0 47 143
- 1.406208 2 0 ack 40 ------- 0 2.1 0.0 47 143
r 1.412896 2 0 ack 40 ------- 0 2.1 0.0 39 115
+ 1.412896 0 2 tcp 1064 ------- 0 0.0 2.1 79 144
+ 1.412896 0 2 tcp 1064 ------- 0 0.0 2.1 80 145
d 1.412896 0 2 tcp 1064 ------- 0 0.0 2.1 80 145
- 1.412896 0 2 tcp 1064 ------- 0 0.0 2.1 71 131
r 1.41472 0 2 tcp 1064 ------- 0 0.0 2.1 55 98
+ 1.41472 2 0 ack 40 ------- 0 2.1 0.0 47 146
- 1.41472 2 0 ack 40 ------- 0 2.1 0.0 47 146
r 1.421408 2 0 ack 40 ------- 0 2.1 0.0 40 116
+ 1.421408 0 2 tcp 1064 ------- 0 0.0 2.1 81 147
+ 1.421408 0 2 tcp 1064 ------- 0 0.0 2.1 82 148
d 1.421408 0 2 tcp 1064 ------- 0 0.0 2.1 82 148
- 1.421408 0 2 tcp 1064 ------- 0 0.0 2.1 72 132
r 1.423232 0 2 tcp 1064 ------- 0 0.0 2.1 57 101
+ 1.423232 2 0 ack 40 ------- 0 2.1 0.0 47 149
- 1.423232 2 0 ack 40 ------- 0 2.1 0.0 47 149
r 1.42992 2 0 ack 40 ------- 0 2.1 0.0 41 117
+ 1.42992 0 2 tcp 1064 ------- 0 0.0 2.1 83 150
+ 1.42992 0 2 tcp 1064 ------- 0 0.0 2.1 84 151
d 1.42992 0 2 tcp 1064 ------- 0 0.0 2.1 84 151
- 1.42992 0 2 tcp 1064 ------- 0 0.0 2.1 73 134
r 1.431744 0 2 tcp 1064 ------- 0 0.0 2.1 59 104
+ 1.431744 2 0 ack 40 ------- 0 2.1 0.0 47 152
- 1.431744 2 0 ack 40 ------- 0 2.1 0.0 47 152
r 1.438432 2 0 ack 40 ------- 0 2.1 0.0 42 118
+ 1.438432 0 2 tcp 1064 ------- 0 0.0 2.1 85 153
+ 1.438432 0 2 tcp 1064 ------- 0 0.0 2.1 86 154
d 1.438432 0 2 tcp 1064 ------- 0 0.0 2.1 86 154
- 1.438432 0 2 tcp 1064 ------- 0 0.0 2.1 74 135
r 1.440256 0 2 tcp 1064 ------- 0 0.0 2.1 61 107
+ 1.440256 2 0 ack 40 ------- 0 2.1 0.0 47 155
- 1.440256 2 0 ack 40 ------- 0 2.1 0.0 47 155
r 1.446944 2 0 ack 40 ------- 0 2.1 0.0 43 121
+ 1.446944 0 2 tcp 1064 ------- 0 0.0 2.1 87 156
+ 1.446944 0 2 tcp 1064 ------- 0 0.0 2.1 88 157
d 1.446944 0 2 tcp 1064 ------- 0 0.0 2.1 88 157
- 1.446944 0 2 tcp 1064 ------- 0 0.0 2.1 75 137
r 1.453312 0 2 tcp 1064 ------- 0 0.0 2.1 63 119
+ 1.453312 2 0 ack 40 ------- 0 2.1 0.0 47 158
- 1.453312 2 0 ack 40 ------- 0 2.1 0.0 47 158
r 1.455456 2 0 ack 40 ------- 0 2.1 0.0 44 124
+ 1.455456 0 2 tcp 1064 ------- 0 0.0 2.1 89 159
+ 1.455456 0 2 tcp 1064 ------- 0 0.0 2.1 90 160
d 1.455456 0 2 tcp 1064 ------- 0 0.0 2.1 90 160
- 1.455456 0 2 tcp 1064 ------- 0 0.0 2.1 76 138
r 1.461824 0 2 tcp 1064 ------- 0 0.0 2.1 64 120
+ 1.461824 2 0 ack 40 ------- 0 2.1 0.0 47 161
- 1.461824 2 0 ack 40 ------- 0 2.1 0.0 47 161
r 1.463968 2 0 ack 40 ------- 0 2.1 0.0 45 127
+ 1.463968 0 2 tcp 1064 ------- 0 0.0 2.1 91 162
+ 1.463968 0 2 tcp 1064 ------- 0 0.0 2.1 92 163
d 1.463968 0 2 tcp 1064 ------- 0 0.0 2.1 92 163
- 1.463968 0 2 tcp 1064 ------- 0 0.0 2.1 77 141
r 1.470336 0 2 tcp 1064 ------- 0 0.0 2.1 65 122
+ 1.470336 2 0 ack 40 ------- 0 2.1 0.0 47 164
- 1.470336 2 0 ack 40 ------- 0 2.1 0.0 47 164
r 1.47248 2 0 ack 40 ------- 0 2.1 0.0 46 130
+ 1.47248 0 2 tcp 1064 ------- 0 0.0 2.1 93 165
+ 1.47248 0 2 tcp 1064 ------- 0 0.0 2.1 94 166
d 1.47248 0 2 tcp 1064 ------- 0 0.0 2.1 94 166
- 1.47248 0 2 tcp 1064 ------- 0 0.0 2.1 78 142
r 1.478848 0 2 tcp 1064 ------- 0 0.0 2.1 66 123
+ 1.478848 2 0 ack 40 ------- 0 2.1 0.0 47 167
- 1.478848 2 0 ack 40 ------- 0 2.1 0.0 47 167
r 1.480992 2 0 ack 40 ------- 0 2.1 0.0 47 133
+ 1.480992 0 2 tcp 1064 ------- 0 0.0 2.1 95 168
+ 1.480992 0 2 tcp 1064 ------- 0 0.0 2.1 96 169
d 1.480992 0 2 tcp 1064 ------- 0 0.0 2.1 96 169
- 1.480992 0 2 tcp 1064 ------- 0 0.0 2.1 79 144
r 1.48736 0 2 tcp 1064 ------- 0 0.0 2.1 67 125
+ 1.48736 2 0 ack 40 ------- 0 2.1 0.0 47 170
- 1.48736 2 0 ack 40 ------- 0 2.1 0.0 47 170
r 1.489504 2 0 ack 40 ------- 0 2.1 0.0 47 136
+ 1.489504 0 2 tcp 1064 ------- 0 0.0 2.1 97 171
- 1.489504 0 2 tcp 1064 ------- 0 0.0 2.1 81 147
r 1.495872 0 2 tcp 1064 ------- 0 0.0 2.1 68 126
+ 1.495872 2 0 ack 40 ------- 0 2.1 0.0 47 172
- 1.495872 2 0 ack 40 ------- 0 2.1 0.0 47 172
r 1.498016 2 0 ack 40 ------- 0 2.1 0.0 47 139
+ 1.498016 0 2 tcp 1064 ------- 0 0.0 2.1 98 173
- 1.498016 0 2 tcp 1064 ------- 0 0.0 2.1 83 150
+ 1.5 1 2 cbr 512 ------- 0 1.0 2.0 14 174
- 1.5 1 2 cbr 512 ------- 0 1.0 2.0 14 174
r 1.504096 1 2 cbr 512 ------- 0 1.0 2.0 13 140
r 1.504384 0 2 tcp 1064 ------- 0 0.0 2.1 69 128
+ 1.504384 2 0 ack 40 ------- 0 2.1 0.0 47 175
- 1.504384 2 0 ack 40 ------- 0 2.1 0.0 47 175
r 1.506528 2 0 ack 40 ------- 0 2.1 0.0 47 143
+ 1.506528 0 2 tcp 1064 ---A--- 0 0.0 2.1 48 176
- 1.506528 0 2 tcp 1064 ------- 0 0.0 2.1 85 153
r 1.512896 0 2 tcp 1064 ------- 0 0.0 2.1 70 129
+ 1.512896 2 0 ack 40 ------- 0 2.1 0.0 47 177
- 1.512896 2 0 ack 40 ------- 0 2.1 0.0 47 177
r 1.51504 2 0 ack 40 ------- 0 2.1 0.0 47 146
- 1.51504 0 2 tcp 1064 ------- 0 0.0 2.1 87 156
r 1.521408 0 2 tcp 1064 ------- 0 0.0 2.1 71 131
+ 1.521408 2 0 ack 40 ------- 0 2.1 0.0 47 178
- 1.521408 2 0 ack 40 ------- 0 2.1 0.0 47 178
r 1.523552 2 0 ack 40 ------- 0 2.1 0.0 47 149
- 1.523552 0 2 tcp 1064 ------- 0 0.0 2.1 89 159
r 1.52992 0 2 tcp 1064 ------- 0 0.0 2.1 72 132
+ 1.52992 2 0 ack 40 ------- 0 2.1 0.0 47 179
- 1.52992 2 0 ack 40 ------- 0 2.1 0.0 47 179
r 1.532064 2 0 ack 40 ------- 0 2.1 0.0 47 152
- 1.532064 0 2 tcp 1064 ------- 0 0.0 2.1 91 162
r 1.538432 0 2 tcp 1064 ------- 0 0.0 2.1 73 134
+ 1.538432 2 0 ack 40 ------- 0 2.1 0.0 47 180
- 1.538432 2 0 ack 40 ------- 0 2.1 0.0 47 180
r 1.540576 2 0 ack 40 ------- 0 2.1 0.0 47 155
- 1.540576 0 2 tcp 1064 ------- 0 0.0 2.1 93 165
r 1.546944 0 2 tcp 1064 ------- 0 0.0 2.1 74 135
+ 1.546944 2 0 ack 40 ------- 0 2.1 0.0 47 181
- 1.546944 2 0 ack 40 ------- 0 2.1 0.0 47 181
- 1.549088 0 2 tcp 1064 ------- 0 0.0 2.1 95 168
r 1.553632 2 0 ack 40 ------- 0 2.1 0.0 47 158
r 1.555456 0 2 tcp 1064 ------- 0 0.0 2.1 75 137
+ 1.555456 2 0 ack 40 ------- 0 2.1 0.0 47 182
- 1.555456 2 0 ack 40 ------- 0 2.1 0.0 47 182
- 1.5576 0 2 tcp 1064 ------- 0 0.0 2.1 97 171
r 1.562144 2 0 ack 40 ------- 0 2.1 0.0 47 161
r 1.563968 0 2 tcp 1064 ------- 0 0.0 2.1 76 138
+ 1.563968 2 0 ack 40 ------- 0 2.1 0.0 47 183
- 1.563968 2 0 ack 40 ------- 0 2.1 0.0 47 183
- 1.566112 0 2 tcp 1064 ------- 0 0.0 2.1 98 173
r 1.570656 2 0 ack 40 ------- 0 2.1 0.0 47 164
r 1.57248 0 2 tcp 1064 ------- 0 0.0 2.1 77 141
+ 1.57248 2 0 ack 40 ------- 0 2.1 0.0 47 184
- 1.57248 2 0 ack 40 ------- 0 2.1 0.0 47 184
- 1.574624 0 2 tcp 1064 ---A--- 0 0.0 2.1 48 176
r 1.579168 2 0 ack 40 ------- 0 2.1 0.0 47 167
r 1.580992 0 2 tcp 1064 ------- 0 0.0 2.1 78 142
+ 1.580992 2 0 ack 40 ------- 0 2.1 0.0 47 185
- 1.580992 2 0 ack 40 ------- 0 2.1 0.0 47 185
r 1.58768 2 0 ack 40 ------- 0 2.1 0.0 47 170
r 1.589504 0 2 tcp 1064 ------- 0 0.0 2.1 79 144
+ 1.589504 2 0 ack 40 ------- 0 2.1 0.0 47 186
- 1.589504 2 0 ack 40 ------- 0 2.1 0.0 47 186
r 1.596192 2 0 ack 40 ------- 0 2.1 0.0 47 172
r 1.598016 0 2 tcp 1064 ------- 0 0.0 2.1 81 147
+ 1.598016 2 0 ack 40 ------- 0 2.1 0.0 47 187
- 1.598016 2 0 ack 40 ------- 0 2.1 0.0 47 187
+ 1.6 1 2 cbr 512 ------- 0 1.0 2.0 15 188
- 1.6 1 2 cbr 512 ------- 0 1.0 2.0 15 188
r 1.604096 1 2 cbr 512 ------- 0 1.0 2.0 14 174
r 1.604704 2 0 ack 40 ------- 0 2.1 0.0 47 175
r 1.606528 0 2 tcp 1064 ------- 0 0.0 2.1 83 150
+ 1.606528 2 0 ack 40 ------- 0 2.1 0.0 47 189
- 1.606528 2 0 ack 40 ------- 0 2.1 0.0 47 189
r 1.613216 2 0 ack 40 ------- 0 2.1 0.0 47 177
r 1.61504 0 2 tcp 1064 ------- 0 0.0 2.1 85 153
+ 1.61504 2 0 ack 40 ------- 0 2.1 0.0 47 190
- 1.61504 2 0 ack 40 ------- 0 2.1 0.0 47 190
r 1.621728 2 0 ack 40 ------- 0 2.1 0.0 47 178
r 1.623552 0 2 tcp 1064 ------- 0 0.0 2.1 87 156
+ 1.623552 2 0 ack 40 ------- 0 2.1 0.0 47 191
- 1.623552 2 0 ack 40 ------- 0 2.1 0.0 47 191
r 1.63024 2 0 ack 40 ------- 0 2.1 0.0 47 179
r 1.632064 0 2 tcp 1064 ------- 0 0.0 2.1 89 159
+ 1.632064 2 0 ack 40 ------- 0 2.1 0.0 47 192
- 1.632064 2 0 ack 40 ------- 0 2.1 0.0 47 192
r 1.638752 2 0 ack 40 ------- 0 2.1 0.0 47 180
r 1.640576 0 2 tcp 1064 ------- 0 0.0 2.1 91 162
+ 1.640576 2 0 ack 40 ------- 0 2.1 0.0 47 193
- 1.640576 2 0 ack 40 ------- 0 2.1 0.0 47 193
r 1.647264 2 0 ack 40 ------- 0 2.1 0.0 47 181
r 1.649088 0 2 tcp 1064 ------- 0 0.0 2.1 93 165
+ 1.649088 2 0 ack 40 ------- 0 2.1 0.0 47 194
- 1.649088 2 0 ack 40 ------- 0 2.1 0.0 47 194
r 1.655776 2 0 ack 40 ------- 0 2.1 0.0 47 182
r 1.6576 0 2 tcp 1064 ------- 0 0.0 2.1 95 168
+ 1.6576 2 0 ack 40 ------- 0 2.1 0.0 47 195
- 1.6576 2 0 ack 40 ------- 0 2.1 0.0 47 195
r 1.664288 2 0 ack 40 ------- 0 2.1 0.0 47 183
r 1.666112 0 2 tcp 1064 ------- 0 0.0 2.1 97 171
+ 1.666112 2 0 ack 40 ------- 0 2.1 0.0 47 196
- 1.666112 2 0 ack 40 ------- 0 2.1 0.0 47 196
r 1.6728 2 0 ack 40 ------- 0 2.1 0.0 47 184
r 1.674624 0 2 tcp 1064 ------- 0 0.0 2.1 98 173
+ 1.674624 2 0 ack 40 ------- 0 2.1 0.0 47 197
- 1.674624 2 0 ack 40 ------- 0 2.1 0.0 47 197
r 1.681312 2 0 ack 40 ------- 0 2.1 0.0 47 185
r 1.683136 0 2 tcp 1064 ---A--- 0 0.0 2.1 48 176
+ 1.683136 2 0 ack 40 ------- 0 2.1 0.0 49 198
- 1.683136 2 0 ack 40 ------- 0 2.1 0.0 49 198
r 1.689824 2 0 ack 40 ------- 0 2.1 0.0 47 186
r 1.698336 2 0 ack 40 ------- 0 2.1 0.0 47 187
+ 1.7 1 2 cbr 512 ------- 0 1.0 2.0 16 199
- 1.7 1 2 cbr 512 ------- 0 1.0 2.0 16 199
r 1.704096 1 2 cbr 512 ------- 0 1.0 2.0 15 188
r 1.706848 2 0 ack 40 ------- 0 2.1 0.0 47 189
r 1.71536 2 0 ack 40 ------- 0 2.1 0.0 47 190
r 1.723872 2 0 ack 40 ------- 0 2.1 0.0 47 191
r 1.732384 2 0 ack 40 ------- 0 2.1 0.0 47 192
r 1.740896 2 0 ack 40 ------- 0 2.1 0.0 47 193
r 1.749408 2 0 ack 40 ------- 0 2.1 0.0 47 194
r 1.75792 2 0 ack 40 ------- 0 2.1 0.0 47 195
r 1.766432 2 0 ack 40 ------- 0 2.1 0.0 47 196
r 1.774944 2 0 ack 40 ------- 0 2.1 0.0 47 197
r 1.783456 2 0 ack 40 ------- 0 2.1 0.0 49 198
+ 1.783456 0 2 tcp 1064 ------- 0 0.0 2.1 50 200
- 1.783456 0 2 tcp 1064 ------- 0 0.0 2.1 50 200
+ 1.783456 0 2 tcp 1064 ------- 0 0.0 2.1 51 201
- 1.791968 0 2 tcp 1064 ------- 0 0.0 2.1 51 201
+ 1.8 1 2 cbr 512 ------- 0 1.0 2.0 17 202
- 1.8 1 2 cbr 512 ------- 0 1.0 2.0 17 202
r 1.804096 1 2 cbr 512 ------- 0 1.0 2.0 16 199
r 1.891968 0 2 tcp 1064 ------- 0 0.0 2.1 50 200
+ 1.891968 2 0 ack 40 ------- 0 2.1 0.0 51 203
- 1.891968 2 0 ack 40 ------- 0 2.1 0.0 51 203
+ 1.9 1 2 cbr 512 ------- 0 1.0 2.0 18 204
- 1.9 1 2 cbr 512 ------- 0 1.0 2.0 18 204
r 1.90048 0 2 tcp 1064 ------- 0 0.0 2.1 51 201
+ 1.90048 2 0 ack 40 ------- 0 2.1 0.0 51 205
- 1.90048 2 0 ack 40 ------- 0 2.1 0.0 51 205
r 1.904096 1 2 cbr 512 ------- 0 1.0 2.0 17 202
r 1.992288 2 0 ack 40 ------- 0 2.1 0.0 51 203
+ 1.992288 0 2 tcp 1064 ------- 0 0.0 2.1 52 206
- 1.992288 0 2 tcp 1064 ------- 0 0.0 2.1 52 206
+ 1.992288 0 2 tcp 1064 ------- 0 0.0 2.1 53 207
+ 1.992288 0 2 tcp 1064 ------- 0 0.0 2.1 54 208
+ 2 1 2 cbr 512 ------- 0 1.0 2.0 19 209
- 2 1 2 cbr 512 ------- 0 1.0 2.0 19 209
- 2.0008 0 2 tcp 1064 ------- 0 0.0 2.1 53 207
r 2.0008 2 0 ack 40 ------- 0 2.1 0.0 51 205
+ 2.0008 0 2 tcp 1064 ------- 0 0.0 2.1 55 210
r 2.004096 1 2 cbr 512 ------- 0 1.0 2.0 18 204
- 2.009312 0 2 tcp 1064 ------- 0 0.0 2.1 54 208
- 2.017824 0 2 tcp 1064 ------- 0 0.0 2.1 55 210
+ 2.1 1 2 cbr 512 ------- 0 1.0 2.0 20 211
- 2.1 1 2 cbr 512 ------- 0 1.0 2.0 20 211
r 2.1008 0 2 tcp 1064 ------- 0 0.0 2.1 52 206
+ 2.1008 2 0 ack 40 ------- 0 2.1 0.0 53 212
- 2.1008 2 0 ack 40 ------- 0 2.1 0.0 53 212
r 2.104096 1 2 cbr 512 ------- 0 1.0 2.0 19 209
r 2.109312 0 2 tcp 1064 ------- 0 0.0 2.1 53 207
+ 2.109312 2 0 ack 40 ------- 0 2.1 0.0 53 213
- 2.109312 2 0 ack 40 ------- 0 2.1 0.0 53 213
r 2.117824 0 2 tcp 1064 ------- 0 0.0 2.1 54 208
+ 2.117824 2 0 ack 40 ------- 0 2.1 0.0 55 214
- 2.117824 2 0 ack 40 ------- 0 2.1 0.0 55 214
r 2.126336 0 2 tcp 1064 ------- 0 0.0 2.1 55 210
+ 2.126336 2 0 ack 40 ------- 0 2.1 0.0 55 215
- 2.126336 2 0 ack 40 ------- 0 2.1 0.0 55 215
+ 2.2 1 2 cbr 512 ------- 0 1.0 2.0 21 216
- 2.2 1 2 cbr 512 ------- 0 1.0 2.0 21 216
r 2.20112 2 0 ack 40 ------- 0 2.1 0.0 53 212
+ 2.20112 0 2 tcp 1064 ------- 0 0.0 2.1 56 217
- 2.20112 0 2 tcp 1064 ------- 0 0.0 2.1 56 217
+ 2.20112 0 2 tcp 1064 ------- 0 0.0 2.1 57 218
r 2.204096 1 2 cbr 512 ------- 0 1.0 2.0 20 211
r 2.209632 2 0 ack 40 ------- 0 2.1 0.0 53 213
+ 2.209632 0 2 tcp 1064 ------- 0 0.0 2.1 58 219
- 2.209632 0 2 tcp 1064 ------- 0 0.0 2.1 57 218
r 2.218144 2 0 ack 40 ------- 0 2.1 0.0 55 214
+ 2.218144 0 2 tcp 1064 ------- 0 0.0 2.1 59 220
+ 2.218144 0 2 tcp 1064 ------- 0 0.0 2.1 60 221
- 2.218144 0 2 tcp 1064 ------- 0 0.0 2.1 58 219